<?xml version="1.0"?>
<VTKFile type="UnstructuredGrid"  version="0.1"  >
<UnstructuredGrid>
<Piece  NumberOfPoints="7004" NumberOfCells="36046">
<Points>
<DataArray  type="Float64"  NumberOfComponents="3"  format="ascii">0.0724957213509306 0.02603631253046101 0.0002815353517742403  0.07220856809885155 0.0260828005195826 0  0.07267529366284954 0.02614591259389834 -1.574010053246e-05  0.07270410152373934 0.02586044166109486 0.0001069478488391126  0.07353420473783423 0.02569574649913572 -0.0002681868117214788  0.07389288184880004 0.02591135419434278 -0.0001461609422481066  0.0735767529383763 0.02561540316044231 3.041776115969796e-05  0.0737939540616346 0.02560055379705346 -0.0004127507444393387  0.07766441793236908 0.02509634166807536 0.001747390238966693  0.07794519782439271 0.02555641582655244 0.001838920191104891  0.07795946735722017 0.02541153482840355 0.002016277045600073  0.07797956932017835 0.02520743617336374 0.001875524799829417  0.07302598935777684 0.02529592245814058 0.002391343258632906  0.07300539865230764 0.02555349389918873 0.002164271420635347  0.07338518635989366 0.02565750010166845 0.002264123545268395  0.07336875344775126 0.0253096827987706 0.002365807486534146  0.07194033759259294 0.02711998781859705 -0.0002688817306595443  0.07171737818769976 0.02727498929665826 0  0.07157769380796332 0.02704187731400419 0  0.07190535215295066 0.02700394579549228 0  0.07396719340750282 0.02413146311023835 -0.001182321420886199  0.07377313053040141 0.02419020349063023 -0.001470100425428152  0.07358672415201971 0.02435985804695864 -0.001302513669834546  0.07396007373837092 0.02439600834523335 -0.001356905249531657  0.0740238893793975 0.02886376121076917 -0.000556346761631761  0.07433096453327669 0.02869625029587955 -0.0002713276823077511  0.07402388937939748 0.02886376121076917 -0.0003145260584749493  0.074218047686194 0.0284823904435121 -0.0004312499485873512  0.07847052006344996 0.02695167550496698 -0.001650008653048882  0.07840623490156562 0.02707194458368316 -0.002  0.07853480522533431 0.0268314064262508 -0.002  0.07814089622250622 0.02707203766866558 -0.001727363093536518  0.07346186579778773 0.02284453135235064 0.003494001406930089  0.07352930756940637 0.02269762196940685 0.003822438145746581  0.07345743602742839 0.02243923335529312 0.003571666109945028  0.07377652469589747 0.02266757441961818 0.00362762924669672  0.07326330740299124 0.02597340614428951 0.002394259753941577  0.07300781860805028 0.02569776448181475 0.002515281984334176  0.07290773471873868 0.02601493149885779 0.002633771015631394  0.0729722173251879 0.02613167285180626 0.00222201062711722  0.07614794676951948 0.02337477918397978 0.0008624674313554607  0.07586969599063564 0.02351118022116385 0.000948242421782297  0.07627712501036939 0.02366146621925599 0.0008676315541220475  0.07607598304173084 0.02363800353934592 0.0006270186837843753  0.07241369809362139 0.02237625172586009 0  0.07245009250152751 0.02242366418638586 -0.0004995722774200484  0.0721712812106008 0.02256352264241632 -0.0002579065976501329  0.07249077752483292 0.02258849413798714 0  0.07562632322965235 0.02792990277319085 0.0003893297747345432  0.07549196689899719 0.0279515454897125 0  0.07575655163201918 0.0278903984192214 0  0.07554032009949976 0.02764448800559813 0.0002605247612489892  0.07227269054063033 0.02623098428140851 0.004041443585038816  0.0724011277750303 0.026471273446145 0.003923964293340876  0.07258821814825785 0.02623185068293095 0.003860001858380435  0.07228654966038668 0.02625691287077588 0.003734940129758032  0.07618153057136694 0.0219733830043811 -0.001695789191501839  0.07584865329082982 0.02209055362182824 -0.001599815381270548  0.07608009532767039 0.02185264200739712 -0.001357110287549465  0.07604365863777854 0.0222156645684321 -0.001298506406033118  0.07265039970561492 0.02775665413363384 -0.000761762025074669  0.07284890155262259 0.02772541597911759 -0.001117063099692596  0.07296272623187393 0.02750504501885737 -0.0008352185944064314  0.0724679791623738 0.02745416125707701 -0.0009663065537809659  0.07641113890678689 0.02763101480591187 0.004008353401711517  0.07629843595130972 0.02769125579066899 0.003746156569923144  0.07630250384925043 0.02731684125070038 0.003586793584644009  0.07616058116662913 0.02745425432815564 0.004104607427665725  0.07685916835736963 0.02705428866471901 -0.000768621552780941  0.07698708399613469 0.02700784537617883 -0.001163188983299203  0.07692631411047071 0.02675536722591857 -0.0009799977929735443  0.07662144537287292 0.0268538247640571 -0.0008854374407148295  0.0776473732571136 0.02638053439716777 0.001311126356614202  0.07725048412665658 0.02646418726402394 0.001276208983799996  0.07733850456876672 0.0263899856651716 0.0009463533653831394  0.07730899534364193 0.02605307985552855 0.001046883231185188  0.07281084451786796 0.02425959428928501 0.002284492450323909  0.07274211897806912 0.02395286105460553 0.00225362325717787  0.0727271228306305 0.02416775685308799 0.001772627652734468  0.07294878437154925 0.02433066609662906 0.002009387417417756  0.0748965626410846 0.02527396602444787 -0.0008432523100762234  0.07473952359605993 0.02479292519074278 -0.0009045439655861365  0.0746801727934954 0.02522364420972583 -0.001105232619091267  0.0750365371921749 0.02496224337261014 -0.0008782758288392288  0.07342718998920686 0.02245540019954093 0.001845983195234142  0.07364875089158476 0.02285171256629239 0.001857353853279658  0.07355731798890652 0.02238584533460245 0.001617628152737889  0.07326757035295042 0.02255952530986396 0.001722696561201063  0.07489093076335177 0.02627274560246507 0.002201374885385031  0.07498574159755347 0.02637188255031351 0.002471510036834754  0.07525349475817782 0.02661300216074998 0.002348470943490627  0.07499845265153138 0.02644780502357975 0.001978701421764474  0.07687053725253368 0.02678626704175222 0.000567629661182558  0.07734798104100671 0.02684513348460815 0.0005495175966201554  0.07711733414053343 0.02647191350732586 0.0006886138168894622  0.07727716034089999 0.02646444591264688 0.0004119783521234896  0.07529852089349218 0.02276552857498784 0.003692401407631808  0.07557364434854436 0.02263264657486684 0.003711239316190564  0.07543054202495383 0.02272195805228387 0.003303311930845195  0.07564048831438912 0.02295529516299537 0.003637031717251639  0.07594578417164269 0.02756033421957075 0.003676563015671577  0.07595519311278683 0.02729891814570182 0.003912319354916764  0.07568782870721331 0.02727144101435356 0.003738389821706676  0.07594284902226514 0.02727305602178531 0.003565956827036201  0.07146965372448263 0.02392092828324047 -0.001147055876270788  0.07158874699863589 0.02414044282603822 -0.0009412587510151944  0.07149765932451931 0.02411988970569745 -0.001400733502308635  0.07142210904952484 0.02449151761365796 -0.001096105191240946  0.07716212428398879 0.02666453871273946 0.001491293679354906  0.07693072751940909 0.02686439478241001 0.001518176384176331  0.07726508453222081 0.02694614317282273 0.001628251720456835  0.07729725273651494 0.02690694610247848 0.001360188569696928  0.07506925055941087 0.0252539746559393 -0.001389587366780195  0.07485713499522202 0.02545122865311573 -0.001491433126454753  0.07458631901491176 0.02518404553714751 -0.001417513180961632  0.07765614125825135 0.02558898162575657 0.0008610143430912015  0.07754181685630863 0.02538422639138743 0.001100360313471319  0.07756908071040916 0.0259078443283816 0.001156301601244399  0.07731354401891372 0.02564045178626355 0.0008328941094953883  0.07695167550495755 0.02152947993654501 -0.001431820635471895  0.07716709626179077 0.02164462472998731 -0.00162714314365403  0.07695167550496701 0.02152947993655006 -0.001680314701712364  0.07684435574515909 0.02184743430883241 -0.001504672853990395  0.07196184862291771 0.02488921277332019 -0.0004963839506709755  0.07222317247270685 0.02477430695263289 -0.0003493886110014591  0.07202506267773491 0.02474553436258768 0  0.07177066924270616 0.02464914359459316 -0.0003279912801514741  0.07271958918332388 0.02692746804117976 0.002840879530037839  0.07292639950276214 0.02716048300933754 0.00304788913203679  0.07272934858225849 0.0269393599031892 0.003156123392157006  0.07314407011895997 0.02678933602544853 0.002788679343435751  0.07629314197801106 0.02427419045788337 0.003029284417455462  0.07609863295654819 0.02404517983651078 0.002866859850524678  0.07605994824369829 0.02429193659438949 0.003240277159108943  0.07575484502637628 0.02435106243888252 0.002835586464336878  0.07232478914529265 0.02632845391516956 0  0.07258976621989377 0.02613365088666815 -0.0003945536366908895  0.07251948959074875 0.02586375545721066 -0.0001873618879263178  0.07697964948642681 0.02354624698075747 -3.970399714366334e-05  0.07671302505002209 0.02381005249493652 -0.0002062321595187133  0.07682022675576781 0.02377534607948029 7.281040792542426e-05  0.07700695912205112 0.02392487852101114 -0.0001097616812516654  0.07268215022431228 0.02560490116112962 0.004180059036361773  0.07242327403296719 0.02552933806773713 0.004040919785783264  0.0728227794124767 0.0252935268554599 0.004104723518478309  0.07243726452519535 0.02537285646104025 0.0044  0.07870966948334544 0.02567954122868154 -0.0002659159086337378  0.07890334781799833 0.02584561106557717 0  0.0784886606037634 0.02603527796463805 -0.0003409386033697028  0.07852608590693472 0.02587367793704826 0  0.07517760239352093 0.02257143179521896 -0.0004651185868892337  0.07542064389669993 0.0227627140493936 -0.0008454537048328079  0.07560913903033219 0.02279285586382304 -0.000578756520886526  0.07551806674487445 0.02242754175986423 -0.000586420467682392  0.076481233434606 0.02587446880609421 -0.001296145071587282  0.07642152090144289 0.02618356231764539 -0.001659232248202888  0.07610090762169736 0.02604816010628424 -0.001521052926063228  0.07647322651423899 0.02620573430193085 -0.001253987534357957  0.07548572990906677 0.02413119995680626 0.002542116055025155  0.07534103859703445 0.02406348764480179 0.002332926620890189  0.07550423792193436 0.02375765199533128 0.002602100895608114  0.07
[...]
<PointData  Vectors="f_21"> 
<DataArray  type="Float64"  Name="f_21"  NumberOfComponents="3" format="ascii">-5.8926494752743736e-05 -2.1838688116919931e-05 3.0141515399999545e-04  0.0000000000000000e+00 0.0000000000000000e+00 0.0000000000000000e+00  -9.1018419704056829e-05 -4.5926483574008534e-05 7.7064265350419893e-05  -1.0697639358216178e-04 -4.9182316943059489e-05 1.8316855390932107e-04  -1.5959965773160563e-04 -6.5590641320718252e-05 2.7449851066362259e-05  -1.2047172450361199e-04 -4.6972434964871423e-05 8.0793644669506726e-05  -1.2848889049322000e-04 -5.8729317043574946e-05 1.3199059730838024e-04  -1.5153082469299996e-04 -5.2889331740438533e-05 -4.4538587041373116e-06  1.9577909625894782e-05 1.0827732920024178e-06 -2.5606240642609253e-06  3.4801034644851767e-05 7.5249006013398793e-06 -6.6706263842246846e-05  5.8479380427004027e-05 1.3743655521227120e-05 -7.8303481256719899e-05  3.7540927606231095e-05 5.3334409794189926e-06 -5.9911050777956265e-05  -5.8369748981080833e-05 -3.2826516788595065e-05 2.0515131114482252e-03  -6.0375917009715345e-05 -3.7246389491535008e-05 1.8239216933032276e-03  -7.1630874414207806e-05 -5.0686594804038165e-05 1.7132194899434332e-03  -7.0714052407195555e-05 -4.6956419468902703e-05 1.8801542847865216e-03  -3.3733704428649198e-05 -4.2624920600886198e-06 -2.2743176396612528e-04  0.0000000000000000e+00 0.0000000000000000e+00 0.0000000000000000e+00  0.0000000000000000e+00 0.0000000000000000e+00 0.0000000000000000e+00  0.0000000000000000e+00 0.0000000000000000e+00 0.0000000000000000e+00  -2.0480029693267795e-04 -6.6775150146467643e-05 -2.7357355965995764e-04  -2.0371577453880496e-04 -5.9154977232707851e-05 -4.9583700041554851e-04  -2.2430216003955716e-04 -9.2169289824864715e-05 -5.4619618621334865e-04  -1.6291817592270716e-04 -6.9302835013726222e-05 -2.3650447565462128e-04  0.0000000000000000e+00 0.0000000000000000e+00 0.0000000000000000e+00  -2.9312738242532952e-06 -2.9070218390048946e-06 -2.0104753552904314e-07  0.0000000000000000e+00 0.0000000000000000e+00 0.0000000000000000e+00  -6.7773678977797570e-06 -7.1126592852644887e-06 9.0329150370136447e-08  0.0000000000000000e+00 0.0000000000000000e+00 0.0000000000000000e+00  0.0000000000000000e+00 0.0000000000000000e+00 0.0000000000000000e+00  0.0000000000000000e+00 0.0000000000000000e+00 0.0000000000000000e+00  -6.0898533145162437e-07 -2.2865950976479537e-07 4.3331767984059880e-07  1.2919513334952912e-05 5.5991897379692048e-06 3.3794759703176087e-03  2.9471015676810886e-05 1.3254231593086260e-05 3.7446305928574130e-03  0.0000000000000000e+00 0.0000000000000000e+00 3.5716661099450282e-03  4.0517618006935759e-05 1.1607371998366653e-05 3.4207292082188540e-03  -6.4936158231127287e-05 -4.5742204348357744e-05 1.8234172141601828e-03  -5.3446476626838423e-05 -3.2310915334461710e-05 2.1088495736958919e-03  -4.1507237575970223e-05 -2.5159958348934912e-05 2.2450177248767413e-03  -5.9604936722493979e-05 -3.0799687270419009e-05 1.8371871939160129e-03  -8.7256294456036180e-05 -3.2319561394019562e-05 2.4328562050720688e-04  -9.9824674651083085e-05 -2.4847172624316135e-05 2.9633919590510736e-04  -7.4968172791284066e-05 -3.0870928236344425e-05 2.0375446048592858e-04  -7.5160441204144554e-05 -3.0239298058645107e-05 1.8740699325531360e-04  0.0000000000000000e+00 0.0000000000000000e+00 0.0000000000000000e+00  -2.5906838227650863e-05 -8.4655503202930413e-06 -4.8539211630936878e-04  -1.1799758430701639e-05 -3.7515610688618607e-06 -2.5095291975901741e-04  0.0000000000000000e+00 0.0000000000000000e+00 0.0000000000000000e+00  0.0000000000000000e+00 0.0000000000000000e+00 0.0000000000000000e+00  0.0000000000000000e+00 0.0000000000000000e+00 0.0000000000000000e+00  0.0000000000000000e+00 0.0000000000000000e+00 0.0000000000000000e+00  -2.4572286916799958e-05 -1.0644971805754026e-05 5.2052285024850593e-05  0.0000000000000000e+00 0.0000000000000000e+00 4.0414435850388165e-03  0.0000000000000000e+00 0.0000000000000000e+00 3.9239642933408762e-03  5.1320424921007265e-05 1.8238411993703985e-05 3.7006592816026789e-03  0.0000000000000000e+00 0.0000000000000000e+00 3.7349401297580320e-03  -7.9488088566218102e-06 1.5985527947842408e-06 1.9102354273635353e-06  -1.7380764177228037e-05 1.4765243651200381e-06 -7.3497982248254146e-07  -1.8267582303453740e-05 2.4553216992248882e-06 1.1158548998696589e-06  -2.7301620650545821e-05 2.6407695769123137e-06 5.4969375979752387e-06  -5.7553547214915053e-05 -4.0948643554621779e-05 -1.0769635660339786e-04  -7.1446785360096163e-05 -4.4723297065478518e-05 -1.5018189788698912e-04  -9.1538080370840059e-05 -5.3697120182129613e-05 -1.2994800666568006e-04  -1.1044576294316808e-04 -3.9723627565677843e-05 -4.8350825014181601e-04  6.2871360290916545e-04 2.0358774949298235e-04 -2.1014914382251115e-06  5.2134708237665142e-04 1.6289918209971881e-04 3.1530493681782233e-05  4.5954437696381372e-04 1.4179890248611421e-04 9.1548159729299027e-05  6.7268221977828083e-04 2.1773295178193194e-04 1.1455453110710970e-04  -1.1096266572497910e-05 -3.9641793526190216e-06 9.4136976947466024e-06  -8.4346961405889055e-06 -3.1100584543792170e-06 6.5541909284977479e-06  -1.1225728523539670e-05 -3.4141787114986511e-06 9.7835180276267653e-06  -1.4608112463497607e-05 -4.1555387327309401e-06 1.3846259152144061e-05  -6.1207389940685897e-06 3.4827815444907022e-06 -1.8036488181002328e-05  -1.0005586404208813e-05 3.7210639583955502e-06 5.9858095707938115e-06  -1.0408558712895325e-05 3.6667048566419099e-07 8.9950514431019766e-06  -1.2904256442399251e-05 -1.2395658153215643e-06 1.3126844431515341e-05  -3.9666012327388021e-05 -1.3221785867454818e-05 2.1282304356617394e-03  -3.1144906420005783e-05 -8.6465748926224222e-06 2.1407292930836234e-03  -3.4977714290074477e-05 -1.0704776839753393e-05 1.6629583762173801e-03  -4.6736712515889606e-05 -1.5152361919956417e-05 1.8212589611605837e-03  -6.0986973502733262e-05 -1.9538309261866267e-05 -5.4508268123838692e-06  -8.5728175943958367e-05 -3.1486660091153703e-05 -2.0390854642644642e-05  -7.2066035698624921e-05 -2.4056004291521841e-05 -1.1270684155413163e-05  -6.1183084212751546e-05 -2.1784818521492061e-05 -5.8899812557551797e-06  0.0000000000000000e+00 0.0000000000000000e+00 1.8459831952341427e-03  -4.7245069302686141e-05 -1.1659622099170241e-05 1.6904941220950624e-03  0.0000000000000000e+00 0.0000000000000000e+00 1.6176281527378888e-03  0.0000000000000000e+00 0.0000000000000000e+00 1.7226965612010630e-03  -1.8364069092991083e-05 -5.7436060095619138e-05 6.5731954325402202e-04  3.4633205516815356e-05 -3.6967115241673999e-05 6.7124180457091309e-04  2.7420604118144888e-05 -2.5398809781325321e-05 4.9101074286337677e-04  -4.7281394416019217e-05 -5.6989680177656453e-05 5.2794131613383177e-04  -1.6756917586285085e-05 7.0380643306895810e-07 2.5613096593729160e-05  0.0000000000000000e+00 0.0000000000000000e+00 0.0000000000000000e+00  -1.4253407140017230e-05 4.6013138258911032e-07 2.0234599392215521e-05  -8.1133604796220402e-06 -2.8850253841798081e-07 1.1319535614180024e-05  3.9083859859689933e-04 1.6082258941291580e-04 1.5701753850548583e-03  4.4736439700771019e-04 1.8389851772217331e-04 1.3324859818296252e-03  2.0139001970417066e-04 1.1213711811160570e-04 1.3818085255646636e-03  4.0531414632943977e-04 1.7673880273629469e-04 1.2009526018905425e-03  4.9617105710314730e-04 1.4804866759953803e-04 1.8120140759137789e-04  5.9778597431618436e-04 1.8643576662030740e-04 2.1569642516318485e-04  5.2594937122837969e-04 1.5561914008620711e-04 3.2588556320260368e-04  4.5313745459394712e-04 1.3361919644938966e-04 2.2588785855237955e-04  -1.4705858236748568e-05 -5.3797147685600554e-06 -1.1438921475631827e-03  -2.5831508940378773e-05 -9.5835670445721702e-06 -9.3381675734464367e-04  -1.3490095562829852e-05 -4.8481999766114997e-06 -1.3992604849518973e-03  -1.9344033639262000e-05 -7.4023503279376303e-06 -1.0913483424625360e-03  -9.0684610651699116e-06 7.0437332274604153e-06 6.8324487132605279e-06  -1.2968936702721519e-05 6.6242658087399391e-06 2.5618666832442039e-05  -3.6113701030866637e-06 1.3152662598999415e-05 -1.5448419342554047e-05  -1.4992788025712502e-05 7.6372145850462736e-06 -1.3769639269121748e-06  -3.6567196441713696e-05 -1.1792389891634688e-05 2.2161768363941430e-06  -3.7092225427326996e-05 -1.1417198703165452e-05 1.9778721333098114e-06  -5.6328118828249290e-05 -1.8982149311440462e-05 -1.0108803759570323e-05  -9.3763783069832142e-06 -5.0973756213248872e-06 6.8748522576110444e-06  -1.0876791550224565e-05 -7.5686319549000415e-06 1.2761764953157522e-05  -9.1159813954649889e-06 -2.2122109352387292e-06 -2.1292413124705037e-06  -1.4681253670877080e-05 -5.8557347513089054e-06 2.2962225440850275e-05  0.0000000000000000e+00 0.0000000000000000e+00 0.0000000000000000e+00  0.0000000000000000e+00 0.0000000000000000e+00 0.0000000000000000e+00  0.0000000000000000e+00 0.0000000000000000e+00 0.0000000000000000e+00  -4.5993533854861505e-06 1.0623189044538847e-06 2.2201945517168425e-06  -6.6922821777738449e-05 -2.4734675251578954e-05 -4.5946831779210907e-04  -7.6772563588319137e-05 -2.9069362635905065e-05 -3.0374561617617721e-04  0.0000000000000000e+00 0.0000000000000000e+00 0.0000000000000000e+00  -3.4769612187069808e-05 -1.1927304518999875e-05 -3.1050922554726022e-04  2.4473409434212268e-06 -1.9499967689547106e-05 2.4264840354666401e-03  6.2006375420526645e-05 -5.7129643963046974e-06 2.1789732162447875e-03  3.6959234108073283e-05 -1.6068999139675791e-06 2.6253743354002291e-03  -2.6378102089944024e-06 -2.9353037914463536e-05 1.9941497927548533e-03  2.2507137761002913e-04 1.0998460802717461e-04 4.6329957687557354e-04  1.4433308663426922e-04 9.2387545198426520e-05 5.7485153569499360e-04  2.8818604165205952e-04 1.3961798675069111e-04 5.8593182206470747e-04  1.4659072284200017e-04 1.0376576410955026e-04 6.5303348511642177e-04  0.0000000000000000e+00 0.0000000000000000e+00 0.0000000000000000e+00  -1.2965220499988625e-04 -5.7397241351193316e-05 -2.1517813554761494e-04  -9.6473245233808598e-05 -4.6667119782696395e-05 -8.1172352290469245e-05  -3.1102846891329479e-05 -1.0932590501906661e-05 5.0887041114109041e-05  -3.5512864408312251e-05 -1.6851446202844857e-05 5.4811572742430408e-05  -3.6777642461466104e-05 -1.7816534373140816e-05 6.7294029591290881e-05  -2.7703864930244297e-05 -1.4105171347680114e-05 4.5639353480894899e-05  4.7354254236623772e-05 2.0998021457561179e-05 4.1041452076479379e-03  3.3880382908048213e-05 1.4660529186705915e-05 3.9863151057171068e-03  4.5195409593395540e-05 1.7413721613299138e-05 4.0116977217696768e-03  0.0000000000000000e+00 0.0000000000000000e+00 4.4000000000000003e-03  -5.1144195042299217e-07 -1.8552942629682602e-07 2.6438756345278910e-08  0.0000000000000000e+00 0.0000000000000000e+00 0.0000000000000000e+00  -8.9184872933802981e-07 -3.0971000787861384e-07 8.0734656750133792e-08  0.0000000000000000e+00 0.0000000000000000e+00 0.0000000000000000e+00  -1.1113086259789230e-04 -7.3448671130264675e-06 1.6553202511728143e-05  -9.1278201536983353e-05 -1.0160333609703564e-05 1.2803759187219539e-05  -8.5325645746042793e-05 -6.2752258134742631e-06 4.3242256841766006e-05  -7.9419459701730193e-05 7.7237799065383850e-07 1.5265760756176625e-05  -1.2316934034374806e-05 -3.1664611716093262e-06 9.2897685347910474e-06  -6.9760233270390916e-06 -1.5594512340403177e-06 5.3112599908828220e-06  -1.1815028539639706e-05 -2.5142032606627601e-06 7.8120498519984168e-06  -1.3147697398136334e-05 -2.8312452604668777e-06 1.0848075212496802e-05  8.1842747562611471e-06 6.6883049537307636e-05 8.3079349236611503e-04  -5.5054741571438044e-05 4.3498351077266477e-05 8.9160799444507510e-04  -3.5731978594219206e-07 6.0419686366788192e-05 9.2604669354272382e-04  -1.9822006485814633e-05 5.9477204068231016e-05 1.1506829786375032e-03  6.5072150635649441e-06 2.2232256166134396e-05 2.2721826091542719e-03  1.1142432354842912e-04 3.7610484659581403e-05 2.5418105342763023e-03  8.7449377784677669e-05 5.0776178421540688e-05 2.0693924049841220e-03  1.5753974479404166e-05 2.2351882795160168e-05 2.4291953432566469e-03  -4.0510141195776605e-05 -2.0884948699232263e-05 1.3442810599618856e-03  -5.0868962215618233e-05 -2.9513133376283176e-05 1.0739681277442549e-03  -4.5559424085809312e-05 -2.9301077781004564e-05 1.3587082839451709e-03  -4.9184309017537398e-05 -2.7017839662903483e-05 1.0244291651704315e-03  -1.1420909971110823e-04 -4.6109326199312626e-05 -9.1266912718025159e-05  -1.4756042860844401e-04 -5.0415948634832740e-05 -2.6356029113201610e-04  -6.0269555131203838e-05 -2.1941176956606563e-05 -6.2000444754553813e-05  -1.3453445754535318e-04 -4.2847173979703777e-05 -1.2017556852312773e-04  -2.9748694242696189e-05 -2.3281341257618893e-05 2.2279048163815765e-05  -3.4454464728719245e-05 -2.5219594303672891e-05 3.4529276057138040e-05  -4.0359479591184499e-05 -3.3093213365128791e-05 2.9935685680500599e-05  -4.5268103957663747e-05 -3.0522302520930477e-05 3.5068996679232618e-05  4.2715178214652400e-04 1.4272914374226708e-04 -8.7935949863685337e-05  5.1060883462534536e-04 1.7184389727154642e-04 -1.4496620866841020e-04  6.2068219862694899e-04 2.0702052405311707e-04 -1.0792900719972891e-04  4.9276966842964258e-04 1.6061504129088241e-04 8.8874185143720786e-06  -7.7373260957341344e-06 -2.8564200578782365e-06 4.2979700348997122e-06  -1.1414388007758386e-05 -3.5608142011003650e-06 4.8529832991813265e-06  0.0000000000000000e+00 0.0000000000000000e+00 0.0000000000000000e+00  -1.1459173884350125e-05 -4.7941186931143964e-06 4.6584571736303178e-06  -1.1050364444719150e-05 -4.1902601956978807e-06 9.7037460986806148e-06  -1.0624595088550454e-05 -4.3375968529199377e-06 9.2283705510584978e-06  -1.0757202920305979e-05 -4.8748437760724322e-06 9.6081189649624794e-06  -9.0124837543121018e-06 -3.5905002541991248e-06 7.6638584779971954e-06  4.5609561132967176e-05 2.9555209299585325e-06 3.8211590806326934e-03  -2.0536702740119858e-06 -4.3716787412653829e-06 3.4512771798081731e-03  1.2889767568109678e-05 9.7830050489925353e-07 3.5708468541284645e-03  1.6702219770460287e-05 1.1648445902250162e-06 3.7328139218918434e-03  -1.1136043563178691e-04 -3.3104126447879328e-05 9.8897609447570598e-06  -1.2825359450062673e-04 -4.3760075243771745e-05 -3.8312186219373114e-05  -1.1958670904485444e-04 -3.7378600374582596e-05 -2.9103597257595213e-05  -1.6057500839131259e-04 -5.9421194573081130e-05 -6.4200196528513327e-05  -8.4921221105990202e-05 -8.5609013174280704e-05 5.0614129776967642e-04  -9.8229365983686551e-05 -7.6899039695017032e-05 6.1276477964182095e-04  -1.0432017452429836e-04 -6.4668981899912545e-05 4.9380734264037546e-04  -9.0355376172291001e-05 -7.8179951462394506e-05 4.4078548419360759e-04  -9.8321783272010765e-05 -3.3630868066942514e-05 1.0072306198322472e-03  -1.2907897350793022e-04 -2.4318193076908326e-05 9.7039444514895293e-04  -1.3569768970848837e-04 -1.0356800096148325e-05 8.8300977345344303e-04  -1.2639174637598552e-04 -2.0094187394070582e-05 6.9216516041168590e-04  -4.4457148338730064e-05 -1.3183744506418559e-05 -3.1473549143333157e-05  -9.6970613891328588e-05 -3.0349010948538751e-05 -9.8256471716452956e-05  6.2458183855039701e-04 1.9852599664826006e-04 3.7448618413512424e-04  8.0094228447032947e-04 2.5501376155143059e-04 3.6402820053424266e-04  6.8399921146850408e-04 2.2338754569939577e-04 3.8319494867254124e-04  7.8195840811151325e-04 2.5631012038432197e-04 2.3858841694662409e-04  -4.4146424949917113e-05 -3.9535856638076148e-05 1.9788762963399596e-03  -6.0385820118767194e-05 -4.2215902397045815e-05 2.0160866143605115e-03  -6.4903571888298380e-05 -5.5201696106059529e-05 1.8259553789894811e-03  -8.4979758265499070e-05 -5.0333949748513559e-06 -1.1142474523041069e-05  -5.9530859406121470e-05 8.1399401537502792e-07 -5.4852627200436833e-06  -6.8769875307127633e-05 -2.0125742826892274e-06 1.6037499214555062e-05  0.0000000000000000e+00 0.0000000000000000e+00 0.0000000000000000e+00  0.0000000000000000e+00 0.0000000000000000e+00 -3.1460099535558382e-04  0.0000000000000000e+00 0.0000000000000000e+00 0.0000000000000000e+00  -1.1889548516897587e-05 -3.8584972106173136e-06 -2.6825545091915739e-04  -6.4827362006747476e-05 -2.1772871600471753e-05 1.0832511500423955e-04  -5.8878938803663980e-05 -2.7868408656570536e-05 1.2344918006361222e-04  -6.2460071597700691e-05 -2.7383312736230587e-05 9.4883402229963088e-05  -6.3833733300789987e-05 -3.1196041889956779e-05 1.3236572660614218e-04  4.3933876517428762e-06 -1.7238207321706121e-07 3.4098854823763737e-03  0.0000000000000000e+00 0.0000000000000000e+00 3.2395927257995111e-03  0.0000000000000000e+00 0.0000000000000000e+00 3.6261990648975267e-03  0.0000000000000000e+00 0.0000000000000000e+00 3.4048851157857610e-03  1.2380726073296623e-04 4.5310807971271362e-05 1.1433556236997502e-04  5.9471737023485123e-05 2.1078334186197233e-05 8.8074056694086909e-05  5.1087569093007535e-05 1.8861893155674604e-05 1.0334503194862828e-04  9.1633910569351509e-05 3.2032449866617775e-05 6.5682330201420540e-05  -9.4973962003698761e-05 -3.3771970655796068e-05 1.3286355721649744e-04  -8.2398066865636461e-05 -3.0331387379613404e-05 1.9874556241357923e-04  -1.0915069892745137e-04 -4.8912377395829711e-05 2.0457851375054031e-04  -5.6642401264941261e-05 -1.4746101860086217e-05 9.8157989606869719e-05  -7.6006614646149573e-05 -2.7173167309076843e-05 -1.5342286577978721e-03  -1.4844355320739103e-04 -6.2770115799323347e-05 -1.0539559489513874e-03  -6.8369936178706492e-05 -2.9499351577615067e-05 -1.5414992767878491e-03  -4.2604142570526349e-05 -1.4566851594531699e-05 -1.6801654048747199e-03  -5.3334873995134682e-05 -1.9329831308499222e-05 3.1972524013737410e-04  -5.7272413623042619e-05 -2.6173138487096622e-05 6.3326639430359027e-04  -4.6544000382412255e-05 -2.0441002268620231e-05 8.2524410255924911e-04  -7.7623965101360128e-05 -3.3456650360472412e-05 5.2605109770052978e-04  -9.9025760124258507e-05 -3.6524294614672073e-05 -7.7979629996614451e-04  -9.9755635918051666e-05 -2.9359097587575104e-05 -8.8670191083127915e-04  0.0000000000000000e+00 0.0000000000000000e+00 -1.0067176181387395e-03  -7.6449859192139106e-05 -1.8848299486803012e-05 -5.1980123877745578e-04  -6.1347400170531197e-06 -3.5443277736194056e-07 3.4429960706800415e-06  -4.4594378440673083e-06 -1.5152958757294989e-07 2.6898830947650683e-06  -3.0386993225768863e-06 -2.4993158240286320e-07 1.8932900806351046e-06  -2.5308335761884579e-06 -1.3280179074515400e-07 1.4899636083021087e-06  -6.4291155123447465e-05 -3.6375405078526471e-05 -7.9644952856397258e-05  0.0000000000000000e+00 0.0000000000000000e+00 0.0000000000000000e+00  0.0000000000000000e+00 0.0000000000000000e+00 0.0000000000000000e+00  0.0000000000000000e+00 0.0000000000000000e+00 0.0000000000000000e+00  -7.4507872816352908e-05 -2.4018561819959668e-05 -2.1939784766665703e-04  -6.8556201382470160e-05 -1.7145891114978448e-05 -5.7028244384256380e-04  -1.1173504381095482e-04 -4.1537304612533323e-05 -4.0251831531918551e-04  -1.3830977164239289e-04 -2.5123073154464033e-05 6.7236713576879041e-04  -1.3210658059469339e-04 -3.2323557701207890e-05 7.3859936617008573e-04  -1.2725010863550516e-04 -4.7351555475536730e-05 6.3104434092375883e-04  -1.2481295425402736e-04 -4.8549890075790950e-05 6.3919957474765964e-04  -3.3700156670683540e-05 5.5398755013305377e-06 7.5907737133441502e-05  -3.5568249604077664e-05 3.7311017570765519e-07 1.1900862494056891e-04  -3.6298074169064598e-05 6.7751924217984009e-06 6.5067519050745478e-05  -3.5200963247373305e-05 2.3390552517221504e-06 8.1263255157002431e-05  -2.9668312801517948e-05 -8.5302793190380321e-06 8.4466646042171407e-05  -4.2821512676252934e-05 -1.4727271026410998e-05 1.1529173530100637e-04  -3.3485981649129166e-05 -2.6163974122951136e-05 1.1052430493305685e-04  -3.6763041654884674e-05 -1.5020885742095373e-05 1.4093043388246470e-04  -1.3487693355893683e-04 -1.5499940565622713e-05 -8.8342665006837604e-05  -1.2723442604249089e-04 -1.8016508849775892e-05 -9.8080119247982809e-05  -1.5042355362299655e-04 -2.2837155001715302e-05 -8.1635946155956643e-05  -1.1638169177352769e-04 -1.2891986460557029e-05 -2.0989845266661950e-05  -6.8434574864398721e-05 6.7033229954305741e-07 2.9625651635850349e-04  0.00000000000