<?xml version="1.0"?>
<VTKFile type="UnstructuredGrid"  version="0.1"  >
<UnstructuredGrid>
<Piece  NumberOfPoints="7004" NumberOfCells="36046">
<Points>
<DataArray  type="Float64"  NumberOfComponents="3"  format="ascii">0.0724957213509306 0.02603631253046101 0.0002815353517742403  0.07220856809885155 0.0260828005195826 0  0.07267529366284954 0.02614591259389834 -1.574010053246e-05  0.07270410152373934 0.02586044166109486 0.0001069478488391126  0.07353420473783423 0.02569574649913572 -0.0002681868117214788  0.07389288184880004 0.02591135419434278 -0.0001461609422481066  0.0735767529383763 0.02561540316044231 3.041776115969796e-05  0.0737939540616346 0.02560055379705346 -0.0004127507444393387  0.07766441793236908 0.02509634166807536 0.001747390238966693  0.07794519782439271 0.02555641582655244 0.001838920191104891  0.07795946735722017 0.02541153482840355 0.002016277045600073  0.07797956932017835 0.02520743617336374 0.001875524799829417  0.07302598935777684 0.02529592245814058 0.002391343258632906  0.07300539865230764 0.02555349389918873 0.002164271420635347  0.07338518635989366 0.02565750010166845 0.002264123545268395  0.07336875344775126 0.0253096827987706 0.002365807486534146  0.07194033759259294 0.02711998781859705 -0.0002688817306595443  0.07171737818769976 0.02727498929665826 0  0.07157769380796332 0.02704187731400419 0  0.07190535215295066 0.02700394579549228 0  0.07396719340750282 0.02413146311023835 -0.001182321420886199  0.07377313053040141 0.02419020349063023 -0.001470100425428152  0.07358672415201971 0.02435985804695864 -0.001302513669834546  0.07396007373837092 0.02439600834523335 -0.001356905249531657  0.0740238893793975 0.02886376121076917 -0.000556346761631761  0.07433096453327669 0.02869625029587955 -0.0002713276823077511  0.07402388937939748 0.02886376121076917 -0.0003145260584749493  0.074218047686194 0.0284823904435121 -0.0004312499485873512  0.07847052006344996 0.02695167550496698 -0.001650008653048882  0.07840623490156562 0.02707194458368316 -0.002  0.07853480522533431 0.0268314064262508 -0.002  0.07814089622250622 0.02707203766866558 -0.001727363093536518  0.07346186579778773 0.02284453135235064 0.003494001406930089  0.07352930756940637 0.02269762196940685 0.003822438145746581  0.07345743602742839 0.02243923335529312 0.003571666109945028  0.07377652469589747 0.02266757441961818 0.00362762924669672  0.07326330740299124 0.02597340614428951 0.002394259753941577  0.07300781860805028 0.02569776448181475 0.002515281984334176  0.07290773471873868 0.02601493149885779 0.002633771015631394  0.0729722173251879 0.02613167285180626 0.00222201062711722  0.07614794676951948 0.02337477918397978 0.0008624674313554607  0.07586969599063564 0.02351118022116385 0.000948242421782297  0.07627712501036939 0.02366146621925599 0.0008676315541220475  0.07607598304173084 0.02363800353934592 0.0006270186837843753  0.07241369809362139 0.02237625172586009 0  0.07245009250152751 0.02242366418638586 -0.0004995722774200484  0.0721712812106008 0.02256352264241632 -0.0002579065976501329  0.07249077752483292 0.02258849413798714 0  0.07562632322965235 0.02792990277319085 0.0003893297747345432  0.07549196689899719 0.0279515454897125 0  0.07575655163201918 0.0278903984192214 0  0.07554032009949976 0.02764448800559813 0.0002605247612489892  0.07227269054063033 0.02623098428140851 0.004041443585038816  0.0724011277750303 0.026471273446145 0.003923964293340876  0.07258821814825785 0.02623185068293095 0.003860001858380435  0.07228654966038668 0.02625691287077588 0.003734940129758032  0.07618153057136694 0.0219733830043811 -0.001695789191501839  0.07584865329082982 0.02209055362182824 -0.001599815381270548  0.07608009532767039 0.02185264200739712 -0.001357110287549465  0.07604365863777854 0.0222156645684321 -0.001298506406033118  0.07265039970561492 0.02775665413363384 -0.000761762025074669  0.07284890155262259 0.02772541597911759 -0.001117063099692596  0.07296272623187393 0.02750504501885737 -0.0008352185944064314  0.0724679791623738 0.02745416125707701 -0.0009663065537809659  0.07641113890678689 0.02763101480591187 0.004008353401711517  0.07629843595130972 0.02769125579066899 0.003746156569923144  0.07630250384925043 0.02731684125070038 0.003586793584644009  0.07616058116662913 0.02745425432815564 0.004104607427665725  0.07685916835736963 0.02705428866471901 -0.000768621552780941  0.07698708399613469 0.02700784537617883 -0.001163188983299203  0.07692631411047071 0.02675536722591857 -0.0009799977929735443  0.07662144537287292 0.0268538247640571 -0.0008854374407148295  0.0776473732571136 0.02638053439716777 0.001311126356614202  0.07725048412665658 0.02646418726402394 0.001276208983799996  0.07733850456876672 0.0263899856651716 0.0009463533653831394  0.07730899534364193 0.02605307985552855 0.001046883231185188  0.07281084451786796 0.02425959428928501 0.002284492450323909  0.07274211897806912 0.02395286105460553 0.00225362325717787  0.0727271228306305 0.02416775685308799 0.001772627652734468  0.07294878437154925 0.02433066609662906 0.002009387417417756  0.0748965626410846 0.02527396602444787 -0.0008432523100762234  0.07473952359605993 0.02479292519074278 -0.0009045439655861365  0.0746801727934954 0.02522364420972583 -0.001105232619091267  0.0750365371921749 0.02496224337261014 -0.0008782758288392288  0.07342718998920686 0.02245540019954093 0.001845983195234142  0.07364875089158476 0.02285171256629239 0.001857353853279658  0.07355731798890652 0.02238584533460245 0.001617628152737889  0.07326757035295042 0.02255952530986396 0.001722696561201063  0.07489093076335177 0.02627274560246507 0.002201374885385031  0.07498574159755347 0.02637188255031351 0.002471510036834754  0.07525349475817782 0.02661300216074998 0.002348470943490627  0.07499845265153138 0.02644780502357975 0.001978701421764474  0.07687053725253368 0.02678626704175222 0.000567629661182558  0.07734798104100671 0.02684513348460815 0.0005495175966201554  0.07711733414053343 0.02647191350732586 0.0006886138168894622  0.07727716034089999 0.02646444591264688 0.0004119783521234896  0.07529852089349218 0.02276552857498784 0.003692401407631808  0.07557364434854436 0.02263264657486684 0.003711239316190564  0.07543054202495383 0.02272195805228387 0.003303311930845195  0.07564048831438912 0.02295529516299537 0.003637031717251639  0.07594578417164269 0.02756033421957075 0.003676563015671577  0.07595519311278683 0.02729891814570182 0.003912319354916764  0.07568782870721331 0.02727144101435356 0.003738389821706676  0.07594284902226514 0.02727305602178531 0.003565956827036201  0.07146965372448263 0.02392092828324047 -0.001147055876270788  0.07158874699863589 0.02414044282603822 -0.0009412587510151944  0.07149765932451931 0.02411988970569745 -0.001400733502308635  0.07142210904952484 0.02449151761365796 -0.001096105191240946  0.07716212428398879 0.02666453871273946 0.001491293679354906  0.07693072751940909 0.02686439478241001 0.001518176384176331  0.07726508453222081 0.02694614317282273 0.001628251720456835  0.07729725273651494 0.02690694610247848 0.001360188569696928  0.07506925055941087 0.0252539746559393 -0.001389587366780195  0.07485713499522202 0.02545122865311573 -0.001491433126454753  0.07458631901491176 0.02518404553714751 -0.001417513180961632  0.07765614125825135 0.02558898162575657 0.0008610143430912015  0.07754181685630863 0.02538422639138743 0.001100360313471319  0.07756908071040916 0.0259078443283816 0.001156301601244399  0.07731354401891372 0.02564045178626355 0.0008328941094953883  0.07695167550495755 0.02152947993654501 -0.001431820635471895  0.07716709626179077 0.02164462472998731 -0.00162714314365403  0.07695167550496701 0.02152947993655006 -0.001680314701712364  0.07684435574515909 0.02184743430883241 -0.001504672853990395  0.07196184862291771 0.02488921277332019 -0.0004963839506709755  0.07222317247270685 0.02477430695263289 -0.0003493886110014591  0.07202506267773491 0.02474553436258768 0  0.07177066924270616 0.02464914359459316 -0.0003279912801514741  0.07271958918332388 0.02692746804117976 0.002840879530037839  0.07292639950276214 0.02716048300933754 0.00304788913203679  0.07272934858225849 0.0269393599031892 0.003156123392157006  0.07314407011895997 0.02678933602544853 0.002788679343435751  0.07629314197801106 0.02427419045788337 0.003029284417455462  0.07609863295654819 0.02404517983651078 0.002866859850524678  0.07605994824369829 0.02429193659438949 0.003240277159108943  0.07575484502637628 0.02435106243888252 0.002835586464336878  0.07232478914529265 0.02632845391516956 0  0.07258976621989377 0.02613365088666815 -0.0003945536366908895  0.07251948959074875 0.02586375545721066 -0.0001873618879263178  0.07697964948642681 0.02354624698075747 -3.970399714366334e-05  0.07671302505002209 0.02381005249493652 -0.0002062321595187133  0.07682022675576781 0.02377534607948029 7.281040792542426e-05  0.07700695912205112 0.02392487852101114 -0.0001097616812516654  0.07268215022431228 0.02560490116112962 0.004180059036361773  0.07242327403296719 0.02552933806773713 0.004040919785783264  0.0728227794124767 0.0252935268554599 0.004104723518478309  0.07243726452519535 0.02537285646104025 0.0044  0.07870966948334544 0.02567954122868154 -0.0002659159086337378  0.07890334781799833 0.02584561106557717 0  0.0784886606037634 0.02603527796463805 -0.0003409386033697028  0.07852608590693472 0.02587367793704826 0  0.07517760239352093 0.02257143179521896 -0.0004651185868892337  0.07542064389669993 0.0227627140493936 -0.0008454537048328079  0.07560913903033219 0.02279285586382304 -0.000578756520886526  0.07551806674487445 0.02242754175986423 -0.000586420467682392  0.076481233434606 0.02587446880609421 -0.001296145071587282  0.07642152090144289 0.02618356231764539 -0.001659232248202888  0.07610090762169736 0.02604816010628424 -0.001521052926063228  0.07647322651423899 0.02620573430193085 -0.001253987534357957  0.07548572990906677 0.02413119995680626 0.002542116055025155  0.07534103859703445 0.02406348764480179 0.002332926620890189  0.07550423792193436 0.02375765199533128 0.002602100895608114  0.07
[...]
<PointData  Scalars="f_44"> 
<DataArray  type="Float64"  Name="f_44"  format="ascii">5.3826535867952553e+10  4.9042967339456306e+10  4.6151694057781570e+10  4.4943179425057747e+10  1.8479614565489933e+10  1.4357706357298119e+10  2.0360661888077702e+10  1.3775399166325138e+10  2.6951688126950645e+09  5.7504588320488977e+09  6.9804497056256924e+09  4.8332964044963408e+09  5.2807220946706215e+10  5.0979718650592239e+10  4.9309715436565720e+10  5.1946789915611252e+10  4.9244177987031197e+10  5.1921375355641998e+10  5.2006923690169617e+10  4.0913846991022903e+10  3.2090416142351959e+10  4.2924452941986748e+10  5.1854543063632507e+10  3.1188463428592510e+10  1.2259497891278265e+09  8.1167687371485388e+08  9.6485954230953634e+08  1.3113196764020104e+09  2.4170963317457777e+08  1.1123918741249637e+08  1.5462641508961791e+08  2.0686804033308014e+08  6.1193822622355148e+10  6.1701466646759583e+10  5.4232475526867340e+10  5.9373852881403885e+10  5.1022236488082405e+10  5.2620682557866455e+10  5.5448559688869911e+10  5.3327688516196449e+10  1.4076977462735174e+10  1.4944148658448788e+10  1.1108028561388853e+10  1.2454204637102207e+10  4.9157739656379303e+10  5.4448076971886703e+10  5.2912121705438896e+10  5.0347658271585365e+10  9.1582674417514725e+09  5.6628427767900801e+09  4.1953483079356704e+09  7.9608867903698235e+09  5.4686426703110901e+10  6.1892118793065681e+10  5.7710688116837563e+10  5.4656499864638588e+10  1.2419808450250282e+09  2.0719504968498874e+09  1.7637055794970765e+09  2.0677989674403148e+09  3.4829174646652466e+10  2.1651983418984154e+10  2.1163772286900833e+10  5.7222564218073822e+10  2.7003624347487335e+09  3.5295971940565395e+09  2.6762692552761617e+09  2.3961788076603332e+09  1.1682471415816088e+09  8.7862893696200097e+08  1.0742585195999370e+09  1.2683302222761004e+09  3.9664328904093862e+09  2.9666081290602117e+09  3.3984529957341943e+09  3.0394417994358392e+09  5.4145375397283928e+10  5.4131134614369987e+10  5.2621056479749535e+10  5.3010745730361450e+10  4.3752395617096558e+09  6.5047441387967949e+09  4.0774781788569460e+09  3.8281867704812799e+09  5.7350051526613411e+10  5.2983327871239777e+10  5.7294581072064606e+10  5.6273596878710167e+10  2.2301107323196167e+10  1.7789105199239586e+10  1.2258104126112810e+10  1.8455805149277534e+10  3.6401367945738354e+09  3.0654994626174340e+09  2.8772790452289848e+09  2.5252921004990115e+09  2.2174693112419899e+10  1.2924757306422226e+10  2.3559992166393864e+10  1.1502370519170145e+10  2.4391685528879275e+09  2.3815455894834232e+09  1.7254587816198516e+09  1.8567708930208566e+09  5.4533488535636467e+10  5.4920348971445007e+10  5.4305534234208282e+10  5.4798642634496498e+10  3.0452218865779028e+09  3.1690656986502295e+09  4.5460437385965214e+09  4.7382069038012953e+09  2.6629124740448132e+09  3.2437820117159352e+09  4.8007147871205816e+09  3.3806823228728127e+09  2.8046039137606225e+09  2.9102353396336327e+09  2.8892913013511500e+09  9.3249573054660070e+08  5.5377611626430976e+08  6.4502594052973127e+08  9.3294262329778183e+08  5.3490559276282074e+10  5.3429836520580681e+10  5.4330220228636238e+10  5.1406267367973961e+10  7.3818825099343277e+10  5.4437253399613312e+10  8.1534466556600876e+10  5.5983054065766525e+10  6.6246273562847595e+09  1.0247725185561390e+10  8.9578344091387959e+09  1.2283322963086769e+10  4.7732872813691734e+10  4.4631753636878181e+10  4.8775719540953644e+10  4.7799520506456156e+09  3.9206406389041419e+09  5.3099740250696993e+09  3.2778211039459872e+09  6.4716661183328598e+10  5.6144916719878456e+10  7.5087966197569778e+10  6.1515876054593307e+10  1.3640557662705073e+08  8.9050740509179041e+07  1.9336418136946791e+08  1.8314513883576456e+08  1.0412384306315626e+10  5.6476992544258928e+09  5.8489015132285557e+09  6.8880008208247757e+09  7.7297076138974142e+08  1.2148717447807651e+09  1.2891211919556468e+09  9.0727850948628056e+08  2.8743760680479084e+10  3.4651886283983749e+10  2.5476708317351875e+10  3.7638397845682182e+10  6.3655537230553986e+10  7.3310593739799515e+10  4.6363726318866676e+10  6.2637154031968216e+10  5.0318552393902794e+10  4.7759366672618454e+10  5.0217229898613846e+10  4.7396110453466370e+10  1.1626638523442064e+10  3.0000098068072548e+10  1.1874478730527777e+10  1.4570088088280569e+10  2.9102708596719408e+09  3.4888827954501228e+09  3.9282783893310380e+09  3.9989527364997826e+09  3.7202915900789180e+09  2.9888679582982802e+09  2.3699957894465103e+09  2.3290991273168077e+09  1.3741917317305782e+09  1.4168796097559764e+09  2.0147089599156628e+09  1.7218545349246829e+09  1.0114968092866012e+09  1.1398740755971255e+09  1.0638273101983997e+09  9.3431442898716700e+08  7.0505952736644501e+10  6.6457085378295990e+10  5.9772348894525391e+10  6.8396189158934189e+10  1.0461593370557913e+10  8.0693498029534798e+09  8.0154856563115807e+09  1.2745328027583815e+10  2.7509798723133987e+10  2.5496551474516411e+10  2.1014358277965786e+10  2.3600613589830498e+10  3.6349151292332893e+10  4.0580472455114777e+10  4.3662511540331436e+10  3.0823511483730759e+10  7.0555361572518158e+08  2.2934755534485729e+10  2.0828832096668139e+09  4.8082114884844637e+09  2.0021866333352678e+09  3.8258735332144079e+09  4.7959244807139252e+10  5.2045813094044998e+10  4.7117482556712692e+10  6.5101881374275665e+09  4.0312740749990377e+09  4.1369563295073071e+09  5.2462333500582031e+10  5.4631915074648888e+10  5.2635805988139702e+10  5.3199220158092171e+10  6.9303452930134010e+09  9.1593680439193115e+09  6.3879265145085306e+09  9.9053334956976166e+09  5.5595841431436897e+10  5.4126711183642860e+10  5.2310832777431969e+10  5.2851403588449608e+10  1.9206174454240329e+09  2.0680307180348165e+09  2.3036057435548697e+09  1.5726673768151231e+09  1.3297340791365568e+10  2.5751663144297630e+10  1.7084013606284475e+10  2.0459314290021893e+10  8.6761438937066757e+10  7.0060945250790405e+10  7.4948435124350693e+10  6.9451537745187439e+10  5.4368094167566093e+10  5.1972794113659599e+10  5.2346736704208687e+10  4.5859838095030228e+10  5.3946990708172554e+10  6.9756918530604752e+10  5.6272821518161392e+10  5.6807845980762665e+10  7.9224230329065144e+08  6.5799955074129772e+08  5.6184622504074514e+08  5.1512330105855572e+08  2.2069844804231899e+10  1.5486862796771473e+10  2.1949563755171680e+10  1.9271317057711113e+10  4.1862932420511429e+10  5.1195373897206947e+10  3.8256430663175446e+10  2.9834110038514324e+10  3.1167841535439991e+10  2.8563787295526718e+10  2.5611982368365887e+10  3.1833895459258676e+09  5.7818843979666481e+09  9.3551061867700539e+09  4.1290973253665438e+09  8.6397902086235828e+09  1.2334879273362749e+10  1.5946075165883917e+10  7.3366885480123825e+09  1.6886402023529972e+10  1.3810503064291054e+10  1.5818816593739378e+10  8.9348137599447365e+09  3.2080516290653183e+10  3.1932407459937122e+10  3.1934610378708359e+10  4.3951265331545982e+10  5.1987536179677284e+08  4.8318423631881166e+08  1.4351383940678380e+09  3.6661401425754662e+09  6.6835900728694487e+08  9.3116101049814081e+08  1.0900355365031199e+09  1.0112143754137169e+09  2.0660104376441849e+10  1.3093753941729961e+10  1.4190134549893326e+10  2.4600826443310226e+10  5.2739767315259567e+10  5.4365129823349632e+10  5.4320816982501755e+10  5.3160270910265930e+10  4.4207051273523399e+10  4.7997547443305779e+10  5.3514190010499001e+10  3.2240008383636372e+10  5.3992168540970390e+10  5.5806919781302681e+10  5.4520780757778732e+10  5.5402641807244049e+10  2.7931661634325724e+09  2.5702708568016024e+09  2.3439439660701933e+09  3.7177240077347984e+09  1.6102266456388815e+10  1.0657594674800169e+10  1.5015058845726164e+10  2.5854285085581326e+10  7.5082151971298862e+08  1.1342101405519826e+09  6.5650737249017787e+08  8.1922558223912871e+08  2.4978559405767136e+09  3.1863489270824800e+09  3.9848297685472975e+09  4.9230703336168613e+09  6.3811961917628593e+10  6.5874579501538383e+10  6.9342257476442810e+10  8.4806829674311874e+10  1.8877270367745664e+09  1.5154961792595944e+09  1.9528925459817281e+09  2.2011591074681344e+09  5.6073289032533546e+10  5.3687786961148102e+10  5.7083465506710289e+10  5.6777599924250771e+10  5.0604981054077087e+10  9.6446949252536144e+09  1.2896511244930712e+10  1.3600291646867315e+10  1.0701460636986721e+10  5.3127887041015137e+10  7.0665356504470245e+10  5.6295138985252388e+10  7.7920794010883591e+10  1.9025643212241414e+09  2.2483618386754875e+09  1.7661388184570901e+09  2.3192507776650839e+09  4.8712260855699177e+09  3.6464379336234350e+09  4.6008467930787230e+09  4.9240238413709660e+09  3.9578963757247901e+09  2.1679841307438064e+09  3.0228104594652367e+09  5.3603697945224953e+10  5.5639769829422676e+10  5.4705513812640785e+10  5.3521500623380989e+10  5.3144585004174538e+10  5.3556821171028137e+10  5.3652651776225517e+10  5.4394167720690544e+10  5.5005820023572762e+10  5.4973491121083633e+10  5.6414437599264084e+10  5.5664612811911095e+10  4.4204324373989449e+09  8.0665194231217432e+09  4.6525611429595022e+09  2.4087792196853871e+09  3.0706288202014546e+09  2.6545106465959692e+09  3.6499071048976598e+09  9.1881015601651745e+09  1.7709723440156952e+10  1.2686410011773960e+10  3.9458538156259575e+10  3.8648475660225143e+10  4.8228644521968552e+10  4.7195759843909546e+10  6.2403450872453814e+09  3.1185987677750735e+09  3.6720468379234467e+09  5.7493770666009817e+09  4.9345893668208710e+10  5.1969269817684517e+10  5.4016750267380020e+10  5.4331063346940742e+10  6.9481696713799591e+10  5.6470464642204102e+10  6.3919936401256218e+10  5.5567188914062309e+10  5.3240683871625656e+10  4.8861282309734909e+10  4.7607700758134590e+10  5.8114442881704247e+10  4.4556719542130882e+10  3.9642539073668449e+10  3.8599307698133041e+10  3.5370022677692703e+10  1.8239045395120475e+08  2.0040401239830881e+08  4.0643265952893019e+08  4.5207012396422184e+08  3.1390029852979517e+09  2.2204766246099191e+09  3.0191542486511078e+09  1.9795058338160379e+09  2.4310516937130241e+09  2.0378901842975619e+09  2.3808231871392422e+09  3.3407721823574967e+09  2.8953537900275025e+09  3.2438407663885617e+09  2.4626402007838273e+09  2.2684422940866809e+09  9.1520921864223747e+09  1.4361287615152901e+10  1.6961329605781780e+10  4.6848882808098579e+10  5.9869051133525818e+10  5.1120269100720230e+10  5.1630771149358604e+10  5.2108505553659622e+10  5.0256166612616058e+10  3.3125067426528158e+09  7.5943461754823446e+09  9.0059161748077164e+09  5.9526450094785633e+09  5.7441895965340492e+10  5.5673083640553566e+10  5.2009308169889023e+10  5.5751788741543510e+10  3.8202596646457362e+09  3.5983162061283264e+09  2.3685826591133795e+09  4.0617179898351750e+09  8.9176465554891068e+10  6.0033643662690971e+10  6.9018709445042786e+10  4.9210062015340347e+10  5.3690793595552795e+10  4.3602627809775406e+10  3.9279305849646484e+10  5.1346720233235733e+10  3.1807437432927048e+10  3.4840096784708282e+10  2.6578681932370232e+10  3.3453557463781197e+10  1.2196533606534100e+09  1.0613555693107454e+09  1.1087703148284633e+09  1.4055185707985830e+09  1.0216176900468348e+09  7.1153201610133743e+08  8.0603131564004564e+08  1.2108043993877835e+09  2.9715006780190845e+10  2.3686784318747910e+10  2.7149617197119797e+10  2.1858309122302238e+10  4.1229005281652899e+09  2.9325141778717861e+09  3.6688264474669557e+09  3.4350945841197948e+09  1.1957994903233522e+10  3.7118800194033844e+10  4.6047758674923630e+10  3.7126144034336411e+10  3.9617483162709785e+10  4.3660812750705902e+10  4.6029634663516861e+10  3.6111140409070759e+09  2.6356348666083841e+09  2.4862981647241292e+09  2.2253979427521577e+09  6.3167972525624718e+10  6.3619859019122948e+10  6.1133566836535172e+10  9.8928049915235817e+08  1.2913892305024357e+09  1.9084358996969683e+09  1.3668316992793233e+09  4.0713403553941017e+10  4.9667537773749031e+10  2.0376653394938828e+10  3.5467624807114716e+10  2.0997772183600288e+10  1.6176798078155199e+10  1.5406518144278036e+10  1.2628688706549683e+10  1.1974171796004772e+10  8.2696621550111189e+09  1.0894204213947357e+10  3.8995024986434466e+08  3.7180573822514272e+08  3.5345018307005477e+08  5.2205049032197481e+08  1.0755606285130409e+10  7.6459815373631248e+09  6.9017288120396299e+09  6.6169383614332190e+09  5.5883974970439194e+10  5.8920461068355957e+10  6.0829991947349838e+10  5.6989107214927193e+10  3.4796434134503433e+10  5.5535139526804680e+10  5.3742664543195007e+10  5.2245155418577225e+10  5.4157555433201012e+10  7.4859906161136436e+08  9.5776837397212183e+08  7.9659093330343986e+08  1.1813305019200413e+10  1.5429868960892952e+10  1.5423849375873583e+10  2.9505866182938305e+10  2.5562283155621220e+10  3.2011915763605862e+10  2.3154158304482529e+10  2.7182989368448780e+10  2.9299849575355713e+10  2.2985591718602543e+10  1.8388330065544861e+10  3.0813569850647594e+10  3.4048565839336517e+10  2.5867027260275108e+10  2.9566070503111801e+10  4.3251458320973984e+10  5.4386577701188004e+10  5.9261278498384460e+10  5.6245596315809410e+10  3.4635735267499962e+09  4.1823310324864440e+09  4.2889036365424962e+09  3.4839116702277565e+09  2.3119756624868302e+09  1.6738749656781323e+09  1.5184017572839079e+09  1.3391513479200926e+09  2.0820531069915695e+09  2.3332217568415494e+09  2.1717518229542718e+09  7.6309656361684771e+09  4.1463943296687832e+09  4.2218016717231770e+09  1.0084003774452507e+10  6.9419166347064957e+07  1.5953835395276263e+08  2.9478135829470140e+08  3.5994807181758797e+08  4.8854103147563873e+10  4.7852607720813065e+10  4.6993779160313385e+10  8.3777739467790151e+08  1.0405936696149644e+09  7.9262963169154406e+08  7.2272278258070755e+08  1.7494178345760622e+09  1.3749147705820198e+09  2.3174552875795317e+09  1.3084169628714473e+09  1.6467692964320642e+10  2.2147841273373981e+10  2.3867485526733387e+10  2.3490981056795570e+10  3.8532878151841301e+10  2.0496271677179432e+10  2.0523349389859203e+10  1.0554050392471245e+10  2.1454340489614590e+10  2.4220785304355480e+10  3.0066694703483273e+10  3.1117150262044888e+10  2.5135126980040833e+10  3.5380637222965370e+10  2.8343050577801807e+10  3.4575735620181755e+10  5.0849407673637650e+10  5.3169119956723801e+10  4.7952413307109238e+10  4.9557270740360832e+10  3.8241430778666153e+10  1.0323498154318136e+10  1.6770088752444214e+10  1.1366644971534044e+10  1.1857730253455051e+10  1.6967379044267117e+10  2.5888831160032318e+10  1.8654157908248241e+10  5.2911616543488647e+10  5.3357461615836555e+10  5.6672578988940605e+10  5.4914454639444267e+10  1.8951526833485065e+09  2.5192975120935788e+09  3.8007774509299726e+09  2.5825313710209746e+09  2.4478574500881111e+10  5.2779590941317139e+09  6.1249182390378275e+09  2.7954387810200958e+09  3.7381268912303891e+09  3.5542187823977272e+10  3.8828207818362228e+10  4.2056747082025208e+10  3.8910722635359879e+10  2.5674776253365602e+09  2.3850470190169826e+09  2.7463994023988323e+09  2.1180476416019199e+09  5.6163239796196537e+09  5.0882921953466387e+09  9.1793473179259357e+09  8.4548641400833063e+09  2.1646135690203247e+09  2.2168316524741349e+09  2.3425958723928180e+09  2.8448586933857541e+09  8.4890709122211609e+10  1.4527123574728079e+11  8.3076865049735321e+10  6.0262233927052010e+10  6.0006605669879669e+10  5.8598059176224541e+10  5.8502562047072975e+10  6.3208393725901947e+10  5.0264546807019325e+10  4.2445441331269035e+10  3.2924050506524479e+10  5.3355651021963272e+10  5.5800499093847748e+10  5.4815913584841003e+10  5.5849948629340202e+10  4.0122670200135221e+09  3.2145155572662206e+09  3.4973792931442394e+09  5.5067289981934532e+10  6.6452018499452271e+10  3.1613285297580256e+09  1.2431642919279304e+09  1.6313981841442714e+09  1.4988086114886725e+09  1.7573099017690292e+10  1.7044817166329468e+10  2.1850587892009418e+10  1.6909443286890800e+10  1.7753120113221099e+09  2.1534301806803699e+09  1.3480893393596163e+09  1.5842515013486416e+09  1.3860071151221313e+09  1.1194625684850850e+09  1.2455579838077910e+09  1.4936752745984032e+09  1.7762515354765468e+09  1.8366821333373356e+09  1.6353163679817088e+09  7.9259759491455150e+08  6.0173836164525652e+08  4.9258595245923984e+08  8.1905731328865194e+08  6.2253716594717728e+10  5.7393340907438377e+10  5.6578170596076286e+10  5.8059331847780296e+10  1.8789275106385273e+10  1.9272347987354301e+10  1.8178851455686829e+10  3.2679476220030964e+10  5.8598504087040718e+10  5.6985762779969109e+10  5.6853213748173195e+10  6.1569860311018585e+10  6.9293036879906571e+08  8.6554503984246540e+08  7.3394976375468636e+08  8.8988927984749091e+08  3.3994575744907036e+10  2.5793255150044918e+10  2.2542503898975433e+10  1.8217489768456638e+10  6.9928327640242243e+08  1.0246185955177236e+09  9.6763537420183873e+08  6.7105695379503381e+08  3.3930820888380859e+10  3.4434514219695366e+10  2.9625975015669052e+10  3.9342765458498749e+10  9.7385738624856186e+09  9.4963305871536617e+09  5.6877039703838835e+09  6.3412695898901491e+09  5.2659632709322769e+10  5.2321943678621681e+10  5.4389888053846214e+10  4.8159862934605186e+10  7.3473808760414719e+10  2.1843650592831302e+11  6.3487415071681244e+10  1.0891173013033635e+11  5.4514154215248024e+10  5.5525810045366409e+10  2.2982087190360227e+09  3.1420216734679184e+09  4.3867068986965094e+09  2.9184531130142727e+09  4.2577872394234222e+10  6.7037271901213255e+09  5.1602854404239473e+09  5.2677443863679018e+09  6.6244031868599653e+09  1.2760410392865303e+11  8.4296923045480286e+10  5.8100628010967049e+10  5.1887262625888596e+10  5.1666421514780800e+10  4.4254533492888069e+09  2.7619043745856953e+09  4.2389022966795545e+09  2.8644608108990948e+10  2.6415310950720676e+10  2.2885192880669537e+10  3.2325010177672043e+10  5.0209578703338461e+09  3.8093186508514886e+09  3.5127953083902707e+09  3.6950618906927872e+09  5.1110534196919594e+10  4.7179336069273247e+10  4.8835958922973114e+10  4.7953767854731331e+10  3.0741210051248103e+08  2.6882314846407402e+08  1.9669258308058721e+08  4.3882074103861928e+08  5.0363353487267570e+10  7.5594554986396530e+10  4.1129649331723015e+10  6.4098231431265656e+10  5.1383661174657259e+09  5.0772056503345671e+09  2.1385914455208380e+09  2.8396044302230787e+09  5.9031349068612957e+09  -5.0056734436282625e+09  1.0922598390273597e+09  8.4001856606077948e+09  5.1623639754292267e+10  5.5278871263279259e+10  4.9285244446149017e+10  1.7932546353467185e+09  2.1320080565054941e+09  5.1192053068610877e+08  2.8456460325619209e+08  5.4685998301628113e+08  3.6282262046911538e+08  7.7973137347517526e+08  9.6015747682599890e+08  5.4567696130240173e+10  7.9408972965767273e+10  5.1204829973100067e+10  4.9759255243602798e+10  4.6698441833523056e+10  5.0499191778856262e+10  5.1503562374439402e+09  4.1536140932323270e+09  4.3232973586914482e+09  5.2201273215620260e+09  4.1984729930635139e+10  4.7963502564830353e+10  5.5838308600752823e+10  3.2892679576865282e+09  3.5773133778015227e+09  3.1907621670960507e+09  4.6988340148532867e+09  3.2115293865692782e+09  7.7922517765796785e+09  5.5063335951246195e+09  2.9430340903390398e+09  3.1333728566295385e+09  4.5524472991698313e+09  1.2544463288162487e+10  8.0392775245109959e+09  7.5001482086805248e+09  3.7096887301294527e+09  2.0614887540436149e+09  2.6187624992831402e+10  2.9673380362967346e+10  2.5790692931315609e+10  2.9634152547296162e+10  5.7405660555802071e+10  5.7212153859746368e+10  2.6645995179818970e+10  2.1973126740608429e+10  2.0479437941191227e+10  6.0857064077117859e+10  7.0055928293600494e+10  4.5493171534024307e+10  7.1087877310834976e+10  5.4476172369369736e+09  5.1763601323508930e+09  5.0756976569866877e+09  3.0525023504158940e+09  4.0570212262295418e+10  3.5162098348025772e+10  3.1109929409594463e+10  3.7835951938022583e+10  5.7454689304441462e+09  3.1057941566271701e+09  2.0685466947498984e+09  3.9093064404898057e+09  1.6301324317351427e+09  1.7671987678208232e+09  1.6844936435943396e+09  2.1565011092699447e+09  5.7548396362591925e+09  4.8104691440706558e+09  3.5333527445521598e+09  1.9086214186370804e+09  3.4744596739606504e+09  3.7425772280803246e+09  3.0761563170574040e+09  3.3975217046049180e+09  7.5708643603718765e+10  3.1366326838189011e+10  2.2898632082367813e+10  2.9201998662179478e+10  4.0591917304034358